<?xml version="1.0" encoding="UTF-8"?>

<!-- generated on Thu Mar 25 00:01:12 2021 by Eclipse SUMO sumo Version 1.8.0
<configuration xmlns:xsi="http://www.w3.org/2001/XMLSchema-instance" xsi:noNamespaceSchemaLocation="http://sumo.dlr.de/xsd/sumoConfiguration.xsd">

    <input>
        <net-file value="includes/sumo/tlc.net.xml"/>
        <route-files value="includes/sumo/tlc.rou.xml"/>
    </input>

    <output>
        <tripinfo-output value="tripinfo.xml"/>
    </output>

    <time>
        <begin value="0"/>
    </time>

    <processing>
        <time-to-teleport value="-1"/>
    </processing>

    <traci_server>
        <remote-port value="58372"/>
    </traci_server>

    <gui_only>
        <start value="true"/>
    </gui_only>

</configuration>
-->

<tripinfos xmlns:xsi="http://www.w3.org/2001/XMLSchema-instance" xsi:noNamespaceSchemaLocation="http://sumo.dlr.de/xsd/tripinfo_file.xsd">
    <tripinfo id="W_E_3" depart="179.00" departLane="W02TL0_3" departPos="5.10" departSpeed="10.00" departDelay="0.00" arrival="281.00" arrivalLane="TL02E0_0" arrivalPos="733.20" arrivalSpeed="14.81" duration="102.00" routeLength="1494.90" waitingTime="0.00" waitingCount="0" stopTime="0.00" timeLoss="2.47" rerouteNo="0" devices="tripinfo_W_E_3" vType="standard_car" speedFactor="1.08" vaporized=""/>
    <tripinfo id="N_S_2" depart="174.00" departLane="N02TL0_3" departPos="5.10" departSpeed="10.00" departDelay="0.00" arrival="313.00" arrivalLane="TL02S0_0" arrivalPos="733.20" arrivalSpeed="13.95" duration="139.00" routeLength="1494.90" waitingTime="18.00" waitingCount="1" stopTime="0.00" timeLoss="31.98" rerouteNo="0" devices="tripinfo_N_S_2" vType="standard_car" speedFactor="1.01" vaporized=""/>
    <tripinfo id="W_E_6" depart="229.00" departLane="W02TL0_0" departPos="5.10" departSpeed="10.00" departDelay="0.00" arrival="335.00" arrivalLane="TL02E0_0" arrivalPos="733.20" arrivalSpeed="14.16" duration="106.00" routeLength="1494.90" waitingTime="0.00" waitingCount="0" stopTime="0.00" timeLoss="2.39" rerouteNo="0" devices="tripinfo_W_E_6" vType="standard_car" speedFactor="1.05" vaporized=""/>
    <tripinfo id="E_N_4" depart="218.00" departLane="E02TL0_3" departPos="5.10" departSpeed="10.00" departDelay="0.00" arrival="374.00" arrivalLane="TL02N0_0" arrivalPos="733.20" arrivalSpeed="14.31" duration="156.00" routeLength="1490.97" waitingTime="38.00" waitingCount="1" stopTime="0.00" timeLoss="51.05" rerouteNo="0" devices="tripinfo_E_N_4" vType="standard_car" speedFactor="1.03" vaporized=""/>
    <tripinfo id="E_W_7" depart="237.00" departLane="E02TL0_2" departPos="5.10" departSpeed="10.00" departDelay="0.00" arrival="382.00" arrivalLane="TL02W0_0" arrivalPos="733.20" arrivalSpeed="12.25" duration="145.00" routeLength="1494.90" waitingTime="11.00" waitingCount="1" stopTime="0.00" timeLoss="22.87" rerouteNo="0" devices="tripinfo_E_W_7" vType="standard_car" speedFactor="0.89" vaporized=""/>
    <tripinfo id="E_W_8" depart="267.00" departLane="E02TL0_1" departPos="5.10" departSpeed="10.00" departDelay="0.00" arrival="385.00" arrivalLane="TL02W0_0" arrivalPos="733.20" arrivalSpeed="12.94" duration="118.00" routeLength="1494.90" waitingTime="0.00" waitingCount="0" stopTime="0.00" timeLoss="2.57" rerouteNo="0" devices="tripinfo_E_W_8" vType="standard_car" speedFactor="0.94" vaporized=""/>
    <tripinfo id="N_S_5" depart="221.00" departLane="N02TL0_2" departPos="5.10" departSpeed="10.00" departDelay="0.00" arrival="416.00" arrivalLane="TL02S0_0" arrivalPos="733.20" arrivalSpeed="11.50" duration="195.00" routeLength="1494.90" waitingTime="54.00" waitingCount="1" stopTime="0.00" timeLoss="65.35" rerouteNo="0" devices="tripinfo_N_S_5" vType="standard_car" speedFactor="0.83" vaporized=""/>
    <tripinfo id="S_N_0" depart="126.00" departLane="S02TL0_2" departPos="5.10" departSpeed="10.00" departDelay="0.00" arrival="435.00" arrivalLane="TL02N0_0" arrivalPos="733.20" arrivalSpeed="14.49" duration="309.00" routeLength="1494.90" waitingTime="193.00" waitingCount="1" stopTime="0.00" timeLoss="206.91" rerouteNo="0" devices="tripinfo_S_N_0" vType="standard_car" speedFactor="1.06" vaporized=""/>
    <tripinfo id="S_N_11" depart="309.00" departLane="S02TL0_1" departPos="5.10" departSpeed="10.00" departDelay="0.00" arrival="436.00" arrivalLane="TL02N0_0" arrivalPos="733.20" arrivalSpeed="13.92" duration="127.00" routeLength="1494.90" waitingTime="9.00" waitingCount="1" stopTime="0.00" timeLoss="21.88" rerouteNo="0" devices="tripinfo_S_N_11" vType="standard_car" speedFactor="1.03" vaporized=""/>
    <tripinfo id="S_N_12" depart="313.00" departLane="S02TL0_1" departPos="5.10" departSpeed="10.00" departDelay="0.00" arrival="438.00" arrivalLane="TL02N0_0" arrivalPos="733.20" arrivalSpeed="14.08" duration="125.00" routeLength="1494.90" waitingTime="6.00" waitingCount="1" stopTime="0.00" timeLoss="21.90" rerouteNo="0" devices="tripinfo_S_N_12" vType="standard_car" speedFactor="1.05" vaporized=""/>
    <tripinfo id="S_E_1" depart="142.00" departLane="S02TL0_1" departPos="5.10" departSpeed="10.00" departDelay="0.00" arrival="439.00" arrivalLane="TL02E0_0" arrivalPos="733.20" arrivalSpeed="12.77" duration="297.00" routeLength="1490.97" waitingTime="171.00" waitingCount="1" stopTime="0.00" timeLoss="182.12" rerouteNo="0" devices="tripinfo_S_E_1" vType="standard_car" speedFactor="0.94" vaporized=""/>
    <tripinfo id="W_E_10" depart="299.00" departLane="W02TL0_3" departPos="5.10" departSpeed="10.00" departDelay="0.00" arrival="464.00" arrivalLane="TL02E0_0" arrivalPos="733.20" arrivalSpeed="15.02" duration="165.00" routeLength="1494.90" waitingTime="52.00" waitingCount="1" stopTime="0.00" timeLoss="65.87" rerouteNo="0" devices="tripinfo_W_E_10" vType="standard_car" speedFactor="1.09" vaporized=""/>
    <tripinfo id="W_E_14" depart="323.00" departLane="W02TL0_3" departPos="5.10" departSpeed="10.00" departDelay="0.00" arrival="468.00" arrivalLane="TL02E0_0" arrivalPos="733.20" arrivalSpeed="13.35" duration="145.00" routeLength="1494.90" waitingTime="23.00" waitingCount="1" stopTime="0.00" timeLoss="35.92" rerouteNo="0" devices="tripinfo_W_E_14" vType="standard_car" speedFactor="0.99" vaporized=""/>
    <tripinfo id="N_S_15" depart="347.00" departLane="N02TL0_3" departPos="5.10" departSpeed="10.00" departDelay="0.00" arrival="503.00" arrivalLane="TL02S0_0" arrivalPos="733.20" arrivalSpeed="12.83" duration="156.00" routeLength="1494.90" waitingTime="26.00" waitingCount="1" stopTime="0.00" timeLoss="39.72" rerouteNo="0" devices="tripinfo_N_S_15" vType="standard_car" speedFactor="0.93" vaporized=""/>
    <tripinfo id="N_S_16" depart="353.00" departLane="N02TL0_1" departPos="5.10" departSpeed="10.00" departDelay="0.00" arrival="507.00" arrivalLane="TL02S0_0" arrivalPos="733.20" arrivalSpeed="12.02" duration="154.00" routeLength="1494.90" waitingTime="18.00" waitingCount="1" stopTime="0.00" timeLoss="30.60" rerouteNo="0" devices="tripinfo_N_S_16" vType="standard_car" speedFactor="0.88" vaporized=""/>
    <tripinfo id="E_W_13" depart="317.00" departLane="E02TL0_1" departPos="5.10" departSpeed="10.00" departDelay="0.00" arrival="526.00" arrivalLane="TL02W0_0" arrivalPos="733.20" arrivalSpeed="15.15" duration="209.00" routeLength="1494.90" waitingTime="97.00" waitingCount="1" stopTime="0.00" timeLoss="112.23" rerouteNo="0" devices="tripinfo_E_W_13" vType="standard_car" speedFactor="1.12" vaporized=""/>
    <tripinfo id="E_W_19" depart="379.00" departLane="E02TL0_0" departPos="5.10" departSpeed="10.00" departDelay="0.00" arrival="530.00" arrivalLane="TL02W0_1" arrivalPos="733.20" arrivalSpeed="15.91" duration="151.00" routeLength="1494.90" waitingTime="38.00" waitingCount="1" stopTime="0.00" timeLoss="57.74" rerouteNo="0" devices="tripinfo_E_W_19" vType="standard_car" speedFactor="1.16" vaporized=""/>
    <tripinfo id="E_W_21" depart="396.00" departLane="E02TL0_0" departPos="5.10" departSpeed="10.00" departDelay="0.00" arrival="530.00" arrivalLane="TL02W0_0" arrivalPos="733.20" arrivalSpeed="13.89" duration="134.00" routeLength="1494.90" waitingTime="13.00" waitingCount="1" stopTime="0.00" timeLoss="27.03" rerouteNo="0" devices="tripinfo_E_W_21" vType="standard_car" speedFactor="1.01" vaporized=""/>
    <tripinfo id="E_W_22" depart="404.00" departLane="E02TL0_0" departPos="5.10" departSpeed="10.00" departDelay="0.00" arrival="534.00" arrivalLane="TL02W0_0" arrivalPos="733.20" arrivalSpeed="13.49" duration="130.00" routeLength="1494.90" waitingTime="4.00" waitingCount="1" stopTime="0.00" timeLoss="18.92" rerouteNo="0" devices="tripinfo_E_W_22" vType="standard_car" speedFactor="0.98" vaporized=""/>
    <tripinfo id="E_W_9" depart="289.00" departLane="E02TL0_3" departPos="5.10" departSpeed="10.00" departDelay="0.00" arrival="539.00" arrivalLane="TL02W0_0" arrivalPos="733.20" arrivalSpeed="11.75" duration="250.00" routeLength="1494.90" waitingTime="112.00" waitingCount="1" stopTime="0.00" timeLoss="123.90" rerouteNo="0" devices="tripinfo_E_W_9" vType="standard_car" speedFactor="0.86" vaporized=""/>
    <tripinfo id="N_S_31" depart="458.00" departLane="N02TL0_1" departPos="5.10" departSpeed="10.00" departDelay="0.00" arrival="555.00" arrivalLane="TL02S0_0" arrivalPos="733.20" arrivalSpeed="15.97" duration="97.00" routeLength="1494.90" waitingTime="0.00" waitingCount="0" stopTime="0.00" timeLoss="3.35" rerouteNo="0" devices="tripinfo_N_S_31" vType="standard_car" speedFactor="1.15" vaporized=""/>
    <tripinfo id="E_S_30" depart="457.00" departLane="E02TL0_1" departPos="5.10" departSpeed="10.00" departDelay="0.00" arrival="565.00" arrivalLane="TL02S0_2" arrivalPos="733.20" arrivalSpeed="16.31" duration="108.00" routeLength="1470.33" waitingTime="1.00" waitingCount="1" stopTime="0.00" timeLoss="16.68" rerouteNo="0" devices="tripinfo_E_S_30" vType="standard_car" speedFactor="1.18" vaporized=""/>
    <tripinfo id="N_S_23" depart="417.00" departLane="N02TL0_2" departPos="5.10" departSpeed="10.00" departDelay="0.00" arrival="569.00" arrivalLane="TL02S0_0" arrivalPos="733.20" arrivalSpeed="12.12" duration="152.00" routeLength="1494.90" waitingTime="16.00" waitingCount="1" stopTime="0.00" timeLoss="30.49" rerouteNo="0" devices="tripinfo_N_S_23" vType="standard_car" speedFactor="0.89" vaporized=""/>
    <tripinfo id="N_S_32" depart="459.00" departLane="N02TL0_2" departPos="5.10" departSpeed="10.00" departDelay="0.00" arrival="570.00" arrivalLane="TL02S0_1" arrivalPos="733.20" arrivalSpeed="13.51" duration="111.00" routeLength="1494.90" waitingTime="0.00" waitingCount="0" stopTime="0.00" timeLoss="2.97" rerouteNo="0" devices="tripinfo_N_S_32" vType="standard_car" speedFactor="1.01" vaporized=""/>
    <tripinfo id="N_S_24" depart="422.00" departLane="N02TL0_0" departPos="5.10" departSpeed="10.00" departDelay="0.00" arrival="571.00" arrivalLane="TL02S0_0" arrivalPos="733.20" arrivalSpeed="11.32" duration="149.00" routeLength="1494.90" waitingTime="7.00" waitingCount="1" stopTime="0.00" timeLoss="18.39" rerouteNo="0" devices="tripinfo_N_S_24" vType="standard_car" speedFactor="0.83" vaporized=""/>
    <tripinfo id="N_S_29" depart="455.00" departLane="N02TL0_3" departPos="5.10" departSpeed="10.00" departDelay="0.00" arrival="575.00" arrivalLane="TL02S0_0" arrivalPos="733.20" arrivalSpeed="12.53" duration="120.00" routeLength="1494.90" waitingTime="0.00" waitingCount="0" stopTime="0.00" timeLoss="3.50" rerouteNo="0" devices="tripinfo_N_S_29" vType="standard_car" speedFactor="0.93" vaporized=""/>
    <tripinfo id="S_W_28" depart="454.00" departLane="S02TL0_0" departPos="5.10" departSpeed="10.00" departDelay="0.00" arrival="589.00" arrivalLane="TL02W0_0" arrivalPos="733.20" arrivalSpeed="15.49" duration="135.00" routeLength="1470.33" waitingTime="24.00" waitingCount="1" stopTime="0.00" timeLoss="39.83" rerouteNo="0" devices="tripinfo_S_W_28" vType="standard_car" speedFactor="1.13" vaporized=""/>
    <tripinfo id="S_N_33" depart="463.00" departLane="S02TL0_0" departPos="5.10" departSpeed="10.00" departDelay="0.00" arrival="590.00" arrivalLane="TL02N0_1" arrivalPos="733.20" arrivalSpeed="16.11" duration="127.00" routeLength="1494.90" waitingTime="17.00" waitingCount="1" stopTime="0.00" timeLoss="34.80" rerouteNo="0" devices="tripinfo_S_N_33" vType="standard_car" speedFactor="1.17" vaporized=""/>
    <tripinfo id="S_N_20" depart="389.00" departLane="S02TL0_3" departPos="5.10" departSpeed="10.00" departDelay="0.00" arrival="592.00" arrivalLane="TL02N0_0" arrivalPos="733.20" arrivalSpeed="13.89" duration="203.00" routeLength="1494.90" waitingTime="83.00" waitingCount="1" stopTime="0.00" timeLoss="96.64" rerouteNo="0" devices="tripinfo_S_N_20" vType="standard_car" speedFactor="1.02" vaporized=""/>
    <tripinfo id="S_N_35" depart="468.00" departLane="S02TL0_3" departPos="5.10" departSpeed="10.00" departDelay="0.00" arrival="593.00" arrivalLane="TL02N0_1" arrivalPos="733.20" arrivalSpeed="14.06" duration="125.00" routeLength="1494.90" waitingTime="5.00" waitingCount="1" stopTime="0.00" timeLoss="19.44" rerouteNo="0" devices="tripinfo_S_N_35" vType="standard_car" speedFactor="1.02" vaporized=""/>
    <tripinfo id="S_E_17" depart="356.00" departLane="S02TL0_3" departPos="5.10" departSpeed="10.00" departDelay="0.00" arrival="595.00" arrivalLane="TL02E0_0" arrivalPos="733.20" arrivalSpeed="12.60" duration="239.00" routeLength="1490.97" waitingTime="112.00" waitingCount="1" stopTime="0.00" timeLoss="124.06" rerouteNo="0" devices="tripinfo_S_E_17" vType="standard_car" speedFactor="0.94" vaporized=""/>
    <tripinfo id="S_N_18" depart="367.00" departLane="S02TL0_2" departPos="5.10" departSpeed="10.00" departDelay="0.00" arrival="595.00" arrivalLane="TL02N0_0" arrivalPos="733.20" arrivalSpeed="12.75" duration="228.00" routeLength="1494.90" waitingTime="100.00" waitingCount="1" stopTime="0.00" timeLoss="112.90" rerouteNo="0" devices="tripinfo_S_N_18" vType="standard_car" speedFactor="0.94" vaporized=""/>
    <tripinfo id="S_N_26" depart="443.00" departLane="S02TL0_1" departPos="5.10" departSpeed="10.00" departDelay="0.00" arrival="596.00" arrivalLane="TL02N0_1" arrivalPos="733.20" arrivalSpeed="12.58" duration="153.00" routeLength="1494.90" waitingTime="22.00" waitingCount="1" stopTime="0.00" timeLoss="35.50" rerouteNo="0" devices="tripinfo_S_N_26" vType="standard_car" speedFactor="0.92" vaporized=""/>
    <tripinfo id="S_N_40" depart="489.00" departLane="S02TL0_3" departPos="5.10" departSpeed="10.00" departDelay="0.00" arrival="598.00" arrivalLane="TL02N0_1" arrivalPos="733.20" arrivalSpeed="13.81" duration="109.00" routeLength="1494.90" waitingTime="0.00" waitingCount="0" stopTime="0.00" timeLoss="3.99" rerouteNo="0" devices="tripinfo_S_N_40" vType="standard_car" speedFactor="1.03" vaporized=""/>
    <tripinfo id="S_N_25" depart="436.00" departLane="S02TL0_3" departPos="5.10" departSpeed="10.00" departDelay="0.00" arrival="602.00" arrivalLane="TL02N0_0" arrivalPos="733.20" arrivalSpeed="11.95" duration="166.00" routeLength="1494.90" waitingTime="28.00" waitingCount="1" stopTime="0.00" timeLoss="41.78" rerouteNo="0" devices="tripinfo_S_N_25" vType="standard_car" speedFactor="0.87" vaporized=""/>
    <tripinfo id="S_E_41" depart="492.00" departLane="S02TL0_3" departPos="5.10" departSpeed="10.00" departDelay="0.00" arrival="608.00" arrivalLane="TL02E0_0" arrivalPos="733.20" arrivalSpeed="12.88" duration="116.00" routeLength="1490.97" waitingTime="0.00" waitingCount="0" stopTime="0.00" timeLoss="3.02" rerouteNo="0" devices="tripinfo_S_E_41" vType="standard_car" speedFactor="0.96" vaporized=""/>
    <tripinfo id="N_E_42" depart="509.00" departLane="N02TL0_2" departPos="5.10" departSpeed="10.00" departDelay="0.00" arrival="613.00" arrivalLane="TL02E0_0" arrivalPos="733.20" arrivalSpeed="15.13" duration="104.00" routeLength="1470.33" waitingTime="0.00" waitingCount="0" stopTime="0.00" timeLoss="6.32" rerouteNo="0" devices="tripinfo_N_E_42" vType="standard_car" speedFactor="1.09" vaporized=""/>
    <tripinfo id="W_E_34" depart="466.00" departLane="W02TL0_3" departPos="5.10" departSpeed="10.00" departDelay="0.00" arrival="624.00" arrivalLane="TL02E0_0" arrivalPos="733.20" arrivalSpeed="13.68" duration="158.00" routeLength="1494.90" waitingTime="35.00" waitingCount="1" stopTime="0.00" timeLoss="48.99" rerouteNo="0" devices="tripinfo_W_E_34" vType="standard_car" speedFactor="0.99" vaporized=""/>
    <tripinfo id="W_S_27" depart="445.00" departLane="W02TL0_2" departPos="5.10" departSpeed="10.00" departDelay="0.00" arrival="626.00" arrivalLane="TL02S0_0" arrivalPos="733.20" arrivalSpeed="12.80" duration="181.00" routeLength="1490.97" waitingTime="54.00" waitingCount="1" stopTime="0.00" timeLoss="66.57" rerouteNo="0" devices="tripinfo_W_S_27" vType="standard_car" speedFactor="0.95" vaporized=""/>
    <tripinfo id="W_E_44" depart="524.00" departLane="W02TL0_3" departPos="5.10" departSpeed="10.00" departDelay="0.00" arrival="630.00" arrivalLane="TL02E0_0" arrivalPos="733.20" arrivalSpeed="14.25" duration="106.00" routeLength="1494.90" waitingTime="0.00" waitingCount="0" stopTime="0.00" timeLoss="2.63" rerouteNo="0" devices="tripinfo_W_E_44" vType="standard_car" speedFactor="1.04" vaporized=""/>
    <tripinfo id="N_W_45" depart="531.00" departLane="N02TL0_1" departPos="5.10" departSpeed="10.00" departDelay="0.00" arrival="651.00" arrivalLane="TL02W0_0" arrivalPos="733.20" arrivalSpeed="14.74" duration="120.00" routeLength="1490.97" waitingTime="5.00" waitingCount="1" stopTime="0.00" timeLoss="20.36" rerouteNo="0" devices="tripinfo_N_W_45" vType="standard_car" speedFactor="1.09" vaporized=""/>
    <tripinfo id="N_S_43" depart="517.00" departLane="N02TL0_3" departPos="5.10" departSpeed="10.00" departDelay="0.00" arrival="653.00" arrivalLane="TL02S0_0" arrivalPos="733.20" arrivalSpeed="14.29" duration="136.00" routeLength="1494.90" waitingTime="18.00" waitingCount="1" stopTime="0.00" timeLoss="32.08" rerouteNo="0" devices="tripinfo_N_S_43" vType="standard_car" speedFactor="1.04" vaporized=""/>
    <tripinfo id="N_W_47" depart="548.00" departLane="N02TL0_1" departPos="5.10" departSpeed="10.00" departDelay="0.00" arrival="671.00" arrivalLane="TL02W0_0" arrivalPos="733.20" arrivalSpeed="12.04" duration="123.00" routeLength="1490.97" waitingTime="0.00" waitingCount="0" stopTime="0.00" timeLoss="2.80" rerouteNo="0" devices="tripinfo_N_W_47" vType="standard_car" speedFactor="0.90" vaporized=""/>
    <tripinfo id="E_W_37" depart="478.00" departLane="E02TL0_2" departPos="5.10" departSpeed="10.00" departDelay="0.00" arrival="678.00" arrivalLane="TL02W0_0" arrivalPos="733.20" arrivalSpeed="16.29" duration="200.00" routeLength="1494.90" waitingTime="92.00" waitingCount="1" stopTime="0.00" timeLoss="108.28" rerouteNo="0" devices="tripinfo_E_W_37" vType="standard_car" speedFactor="1.18" vaporized=""/>
    <tripinfo id="N_S_48" depart="555.00" departLane="N02TL0_0" departPos="5.10" departSpeed="10.00" departDelay="0.00" arrival="681.00" arrivalLane="TL02S0_0" arrivalPos="733.20" arrivalSpeed="12.02" duration="126.00" routeLength="1494.90" waitingTime="0.00" waitingCount="0" stopTime="0.00" timeLoss="2.70" rerouteNo="0" devices="tripinfo_N_S_48" vType="standard_car" speedFactor="0.88" vaporized=""/>
    <tripinfo id="E_W_38" depart="485.00" departLane="E02TL0_0" departPos="5.10" departSpeed="10.00" departDelay="0.00" arrival="683.00" arrivalLane="TL02W0_0" arrivalPos="733.20" arrivalSpeed="14.95" duration="198.00" routeLength="1494.90" waitingTime="86.00" waitingCount="1" stopTime="0.00" timeLoss="99.42" rerouteNo="0" devices="tripinfo_E_W_38" vType="standard_car" speedFactor="1.10" vaporized=""/>
    <tripinfo id="E_W_36" depart="471.00" departLane="E02TL0_0" departPos="5.10" departSpeed="10.00" departDelay="0.00" arrival="686.00" arrivalLane="TL02W0_0" arrivalPos="733.20" arrivalSpeed="13.42" duration="215.00" routeLength="1494.90" waitingTime="92.00" waitingCount="1" stopTime="0.00" timeLoss="104.30" rerouteNo="0" devices="tripinfo_E_W_36" vType="standard_car" speedFactor="0.97" vaporized=""/>
    <tripinfo id="E_W_39" depart="488.00" departLane="E02TL0_1" departPos="5.10" departSpeed="10.00" departDelay="0.00" arrival="690.00" arrivalLane="TL02W0_0" arrivalPos="733.20" arrivalSpeed="12.02" duration="202.00" routeLength="1494.90" waitingTime="71.00" waitingCount="1" stopTime="0.00" timeLoss="81.80" rerouteNo="0" devices="tripinfo_E_W_39" vType="standard_car" speedFactor="0.90" vaporized=""/>
    <tripinfo id="E_W_50" depart="572.00" departLane="E02TL0_2" departPos="5.10" departSpeed="10.00" departDelay="0.00" arrival="701.00" arrivalLane="TL02W0_0" arrivalPos="733.20" arrivalSpeed="11.47" duration="129.00" routeLength="1494.90" waitingTime="0.00" waitingCount="0" stopTime="0.00" timeLoss="2.73" rerouteNo="0" devices="tripinfo_E_W_50" vType="standard_car" speedFactor="0.85" vaporized=""/>
    <tripinfo id="W_N_51" depart="575.00" departLane="W02TL0_3" departPos="5.10" departSpeed="10.00" departDelay="0.00" arrival="709.00" arrivalLane="TL02N0_0" arrivalPos="733.20" arrivalSpeed="16.09" duration="134.00" routeLength="1470.33" waitingTime="28.00" waitingCount="1" stopTime="0.00" timeLoss="42.77" rerouteNo="0" devices="tripinfo_W_N_51" vType="standard_car" speedFactor="1.17" vaporized=""/>
    <tripinfo id="W_E_58" depart="607.00" departLane="W02TL0_2" departPos="5.10" departSpeed="10.00" departDelay="0.00" arrival="715.00" arrivalLane="TL02E0_0" arrivalPos="733.20" arrivalSpeed="14.02" duration="108.00" routeLength="1494.90" waitingTime="0.00" waitingCount="0" stopTime="0.00" timeLoss="2.57" rerouteNo="0" devices="tripinfo_W_E_58" vType="standard_car" speedFactor="1.02" vaporized=""/>
    <tripinfo id="W_E_46" depart="536.00" departLane="W02TL0_0" departPos="5.10" departSpeed="10.00" departDelay="0.00" arrival="717.00" arrivalLane="TL02E0_0" arrivalPos="733.20" arrivalSpeed="13.36" duration="181.00" routeLength="1494.90" waitingTime="59.00" waitingCount="1" stopTime="0.00" timeLoss="72.30" rerouteNo="0" devices="tripinfo_W_E_46" vType="standard_car" speedFactor="1.00" vaporized=""/>
    <tripinfo id="W_E_56" depart="600.00" departLane="W02TL0_1" departPos="5.10" departSpeed="10.00" departDelay="0.00" arrival="724.00" arrivalLane="TL02E0_0" arrivalPos="733.20" arrivalSpeed="12.37" duration="124.00" routeLength="1494.90" waitingTime="0.00" waitingCount="0" stopTime="0.00" timeLoss="3.54" rerouteNo="0" devices="tripinfo_W_E_56" vType="standard_car" speedFactor="0.90" vaporized=""/>
    <tripinfo id="W_E_59" depart="610.00" departLane="W02TL0_1" departPos="5.10" departSpeed="10.00" departDelay="0.00" arrival="724.00" arrivalLane="TL02E0_1" arrivalPos="733.20" arrivalSpeed="13.27" duration="114.00" routeLength="1494.90" waitingTime="0.00" waitingCount="0" stopTime="0.00" timeLoss="2.93" rerouteNo="0" devices="tripinfo_W_E_59" vType="standard_car" speedFactor="0.97" vaporized=""/>
    <tripinfo id="W_E_61" depart="631.00" departLane="W02TL0_2" departPos="5.10" departSpeed="10.00" departDelay="0.00" arrival="730.00" arrivalLane="TL02E0_0" arrivalPos="733.20" arrivalSpeed="15.27" duration="99.00" routeLength="1494.90" waitingTime="0.00" waitingCount="0" stopTime="0.00" timeLoss="2.55" rerouteNo="0" devices="tripinfo_W_E_61" vType="standard_car" speedFactor="1.12" vaporized=""/>
    <tripinfo id="N_W_57" depart="606.00" departLane="N02TL0_3" departPos="5.10" departSpeed="10.00" departDelay="0.00" arrival="740.00" arrivalLane="TL02W0_0" arrivalPos="733.20" arrivalSpeed="15.84" duration="134.00" routeLength="1490.97" waitingTime="25.00" waitingCount="1" stopTime="0.00" timeLoss="39.58" rerouteNo="0" devices="tripinfo_N_W_57" vType="standard_car" speedFactor="1.14" vaporized=""/>
    <tripinfo id="N_S_53" depart="585.00" departLane="N02TL0_3" departPos="5.10" departSpeed="10.00" departDelay="0.00" arrival="743.00" arrivalLane="TL02S0_0" arrivalPos="733.20" arrivalSpeed="15.09" duration="158.00" routeLength="1494.90" waitingTime="46.00" waitingCount="1" stopTime="0.00" timeLoss="59.51" rerouteNo="0" devices="tripinfo_N_S_53" vType="standard_car" speedFactor="1.10" vaporized=""/>
    <tripinfo id="N_S_60" depart="621.00" departLane="N02TL0_1" departPos="5.10" departSpeed="10.00" departDelay="0.00" arrival="744.00" arrivalLane="TL02S0_0" arrivalPos="733.20" arrivalSpeed="14.83" duration="123.00" routeLength="1494.90" waitingTime="9.00" waitingCount="1" stopTime="0.00" timeLoss="22.88" rerouteNo="0" devices="tripinfo_N_S_60" vType="standard_car" speedFactor="1.08" vaporized=""/>
    <tripinfo id="N_S_64" depart="643.00" departLane="N02TL0_3" departPos="5.10" departSpeed="10.00" departDelay="0.00" arrival="761.00" arrivalLane="TL02S0_0" arrivalPos="733.20" arrivalSpeed="12.84" duration="118.00" routeLength="1494.90" waitingTime="0.00" waitingCount="0" stopTime="0.00" timeLoss="2.63" rerouteNo="0" devices="tripinfo_N_S_64" vType="standard_car" speedFactor="0.94" vaporized=""/>
    <tripinfo id="S_N_52" depart="579.00" departLane="S02TL0_1" departPos="5.10" departSpeed="10.00" departDelay="0.00" arrival="778.00" arrivalLane="TL02N0_0" arrivalPos="733.20" arrivalSpeed="14.09" duration="199.00" routeLength="1494.90" waitingTime="78.00" waitingCount="1" stopTime="0.00" timeLoss="92.49" rerouteNo="0" devices="tripinfo_S_N_52" vType="standard_car" speedFactor="1.02" vaporized=""/>
    <tripinfo id="S_N_63" depart="632.00" departLane="S02TL0_3" departPos="5.10" departSpeed="10.00" departDelay="0.00" arrival="779.00" arrivalLane="TL02N0_1" arrivalPos="733.20" arrivalSpeed="13.70" duration="147.00" routeLength="1494.90" waitingTime="23.00" waitingCount="1" stopTime="0.00" timeLoss="37.68" rerouteNo="0" devices="tripinfo_S_N_63" vType="standard_car" speedFactor="0.99" vaporized=""/>
    <tripinfo id="S_N_68" depart="656.00" departLane="S02TL0_1" departPos="5.10" departSpeed="10.00" departDelay="0.00" arrival="781.00" arrivalLane="TL02N0_2" arrivalPos="733.20" arrivalSpeed="14.21" duration="125.00" routeLength="1494.90" waitingTime="6.00" waitingCount="1" stopTime="0.00" timeLoss="21.15" rerouteNo="0" devices="tripinfo_S_N_68" vType="standard_car" speedFactor="1.04" vaporized=""/>
    <tripinfo id="S_N_71" depart="665.00" departLane="S02TL0_1" departPos="5.10" departSpeed="10.00" departDelay="0.00" arrival="782.00" arrivalLane="TL02N0_0" arrivalPos="733.20" arrivalSpeed="13.38" duration="117.00" routeLength="1494.90" waitingTime="0.00" waitingCount="0" stopTime="0.00" timeLoss="5.80" rerouteNo="0" devices="tripinfo_S_N_71" vType="standard_car" speedFactor="0.97" vaporized=""/>
    <tripinfo id="S_N_54" depart="593.00" departLane="S02TL0_2" departPos="5.10" departSpeed="10.00" departDelay="0.00" arrival="785.00" arrivalLane="TL02N0_2" arrivalPos="733.20" arrivalSpeed="13.47" duration="192.00" routeLength="1494.90" waitingTime="65.00" waitingCount="1" stopTime="0.00" timeLoss="84.08" rerouteNo="0" devices="tripinfo_S_N_54" vType="standard_car" speedFactor="1.00" vaporized=""/>
    <tripinfo id="S_N_66" depart="644.00" departLane="S02TL0_0" departPos="5.10" departSpeed="10.00" departDelay="0.00" arrival="785.00" arrivalLane="TL02N0_0" arrivalPos="733.20" arrivalSpeed="12.54" duration="141.00" routeLength="1494.90" waitingTime="10.00" waitingCount="1" stopTime="0.00" timeLoss="22.22" rerouteNo="0" devices="tripinfo_S_N_66" vType="standard_car" speedFactor="0.91" vaporized=""/>
    <tripinfo id="S_N_49" depart="561.00" departLane="S02TL0_2" departPos="5.10" departSpeed="10.00" departDelay="0.00" arrival="787.00" arrivalLane="TL02N0_0" arrivalPos="733.20" arrivalSpeed="11.57" duration="226.00" routeLength="1494.90" waitingTime="88.00" waitingCount="1" stopTime="0.00" timeLoss="99.35" rerouteNo="0" devices="tripinfo_S_N_49" vType="standard_car" speedFactor="0.85" vaporized=""/>
    <tripinfo id="W_S_62" depart="632.00" departLane="W02TL0_3" departPos="5.10" departSpeed="10.00" departDelay="0.00" arrival="808.00" arrivalLane="TL02S0_0" arrivalPos="733.20" arrivalSpeed="13.94" duration="176.00" routeLength="1490.97" waitingTime="57.00" waitingCount="1" stopTime="0.00" timeLoss="69.89" rerouteNo="0" devices="tripinfo_W_S_62" vType="standard_car" speedFactor="1.02" vaporized=""/>
    <tripinfo id="W_S_72" depart="666.00" departLane="W02TL0_3" departPos="5.10" departSpeed="10.00" departDelay="0.00" arrival="814.00" arrivalLane="TL02S0_0" arrivalPos="733.20" arrivalSpeed="12.77" duration="148.00" routeLength="1490.97" waitingTime="19.00" waitingCount="1" stopTime="0.00" timeLoss="33.18" rerouteNo="0" devices="tripinfo_W_S_72" vType="standard_car" speedFactor="0.94" vaporized=""/>
    <tripinfo id="N_S_69" depart="662.00" departLane="N02TL0_1" departPos="5.10" departSpeed="10.00" departDelay="0.00" arrival="839.00" arrivalLane="TL02S0_0" arrivalPos="733.20" arrivalSpeed="13.78" duration="177.00" routeLength="1494.90" waitingTime="58.00" waitingCount="1" stopTime="0.00" timeLoss="71.69" rerouteNo="0" devices="tripinfo_N_S_69" vType="standard_car" speedFactor="1.02" vaporized=""/>
    <tripinfo id="N_W_78" depart="700.00" departLane="N02TL0_2" departPos="5.10" departSpeed="10.00" departDelay="0.00" arrival="840.00" arrivalLane="TL02W0_0" arrivalPos="733.20" arrivalSpeed="13.70" duration="140.00" routeLength="1490.97" waitingTime="20.00" waitingCount="1" stopTime="0.00" timeLoss="32.85" rerouteNo="0" devices="tripinfo_N_W_78" vType="standard_car" speedFactor="1.01" vaporized=""/>
    <tripinfo id="N_S_77" depart="695.00" departLane="N02TL0_3" departPos="5.10" departSpeed="10.00" departDelay="0.00" arrival="841.00" arrivalLane="TL02S0_0" arrivalPos="733.20" arrivalSpeed="13.29" duration="146.00" routeLength="1494.90" waitingTime="21.00" waitingCount="1" stopTime="0.00" timeLoss="35.63" rerouteNo="0" devices="tripinfo_N_S_77" vType="standard_car" speedFactor="0.98" vaporized=""/>